LAMMPS data file. CGCMM style. atom_style charge generated by VMD/TopoTools v1.7 on Tue Mar 26 16:23:33 -03 2024
 3570 atoms
 0 bonds
 0 angles
 0 dihedrals
 0 impropers
 2 atom types
 0 bond types
 0 angle types
 0 dihedral types
 0 improper types
 -0.000002 107.147596  xlo xhi
 -0.000005 103.534198  ylo yhi
 -4.000000 96.000000   zlo zhi

# Pair Coeffs
#
# 1  C
# 2  H

 Masses

 1 12.010700 # C
 2 1.007940 # H

 Atoms # charge

1 1 0.000000 1.731400 0.751008 0.000000 # C
2 1 0.000000 3.151400 0.751008 0.000000 # C
3 1 0.000000 4.571400 0.751008 0.000000 # C
4 1 0.000000 5.575491 1.755100 0.000000 # C
5 1 0.000000 5.575491 3.175100 0.000000 # C
6 1 0.000000 4.571400 4.179192 0.000000 # C
7 1 0.000000 3.151400 4.179192 0.000000 # C
8 1 0.000000 1.731400 4.179192 0.000000 # C
9 1 0.000000 0.727308 3.175100 0.000000 # C
10 1 0.000000 0.727308 1.755100 0.000000 # C
11 1 0.000000 1.731400 5.681208 0.000000 # C
12 1 0.000000 3.151400 5.681208 0.000000 # C
13 1 0.000000 4.571400 5.681208 0.000000 # C
14 1 0.000000 5.575491 6.685300 0.000000 # C
15 1 0.000000 5.575491 8.105300 0.000000 # C
16 1 0.000000 4.571400 9.109391 0.000000 # C
17 1 0.000000 3.151400 9.109391 0.000000 # C
18 1 0.000000 1.731400 9.109391 0.000000 # C
19 1 0.000000 0.727308 8.105300 0.000000 # C
20 1 0.000000 0.727308 6.685300 0.000000 # C
21 1 0.000000 1.731400 10.611408 0.000000 # C
22 1 0.000000 3.151400 10.611408 0.000000 # C
23 1 0.000000 4.571400 10.611408 0.000000 # C
24 1 0.000000 5.575491 11.615500 0.000000 # C
25 1 0.000000 5.575491 13.035500 0.000000 # C
26 1 0.000000 4.571400 14.039592 0.000000 # C
27 1 0.000000 3.151400 14.039592 0.000000 # C
28 1 0.000000 1.731400 14.039592 0.000000 # C
29 1 0.000000 0.727308 13.035500 0.000000 # C
30 1 0.000000 0.727308 11.615500 0.000000 # C
31 1 0.000000 1.731400 15.541609 0.000000 # C
32 1 0.000000 3.151400 15.541609 0.000000 # C
33 1 0.000000 4.571400 15.541609 0.000000 # C
34 1 0.000000 5.575491 16.545700 0.000000 # C
35 1 0.000000 5.575491 17.965700 0.000000 # C
36 1 0.000000 4.571400 18.969791 0.000000 # C
37 1 0.000000 3.151400 18.969791 0.000000 # C
38 1 0.000000 1.731400 18.969791 0.000000 # C
39 1 0.000000 0.727308 17.965700 0.000000 # C
40 1 0.000000 0.727308 16.545700 0.000000 # C
41 1 0.000000 1.731400 20.471807 0.000000 # C
42 1 0.000000 3.151400 20.471807 0.000000 # C
43 1 0.000000 4.571400 20.471807 0.000000 # C
44 1 0.000000 5.575491 21.475901 0.000000 # C
45 1 0.000000 5.575491 22.895901 0.000000 # C
46 1 0.000000 4.571400 23.899992 0.000000 # C
47 1 0.000000 3.151400 23.899992 0.000000 # C
48 1 0.000000 1.731400 23.899992 0.000000 # C
49 1 0.000000 0.727308 22.895901 0.000000 # C
50 1 0.000000 0.727308 21.475901 0.000000 # C
51 1 0.000000 1.731400 25.402008 0.000000 # C
52 1 0.000000 3.151400 25.402008 0.000000 # C
53 1 0.000000 4.571400 25.402008 0.000000 # C
54 1 0.000000 5.575491 26.406099 0.000000 # C
55 1 0.000000 5.575491 27.826099 0.000000 # C
56 1 0.000000 4.571400 28.830193 0.000000 # C
57 1 0.000000 3.151400 28.830193 0.000000 # C
58 1 0.000000 1.731400 28.830193 0.000000 # C
59 1 0.000000 0.727308 27.826099 0.000000 # C
60 1 0.000000 0.727308 26.406099 0.000000 # C
61 1 0.000000 1.731400 30.332209 0.000000 # C
62 1 0.000000 3.151400 30.332209 0.000000 # C
63 1 0.000000 4.571400 30.332209 0.000000 # C
64 1 0.000000 5.575491 31.336300 0.000000 # C
65 1 0.000000 5.575491 32.756302 0.000000 # C
66 1 0.000000 4.571400 33.760391 0.000000 # C
67 1 0.000000 3.151400 33.760391 0.000000 # C
68 1 0.000000 1.731400 33.760391 0.000000 # C
69 1 0.000000 0.727308 32.756302 0.000000 # C
70 1 0.000000 0.727308 31.336300 0.000000 # C
71 1 0.000000 1.731400 35.262409 0.000000 # C
72 1 0.000000 3.151400 35.262409 0.000000 # C
73 1 0.000000 4.571400 35.262409 0.000000 # C
74 1 0.000000 5.575491 36.266499 0.000000 # C
75 1 0.000000 5.575491 37.686501 0.000000 # C
76 1 0.000000 4.571400 38.690590 0.000000 # C
77 1 0.000000 3.151400 38.690590 0.000000 # C
78 1 0.000000 1.731400 38.690590 0.000000 # C
79 1 0.000000 0.727308 37.686501 0.000000 # C
80 1 0.000000 0.727308 36.266499 0.000000 # C
81 1 0.000000 1.731400 40.192608 0.000000 # C
82 1 0.000000 3.151400 40.192608 0.000000 # C
83 1 0.000000 4.571400 40.192608 0.000000 # C
84 1 0.000000 5.575491 41.196701 0.000000 # C
85 1 0.000000 5.575491 42.616699 0.000000 # C
86 1 0.000000 4.571400 43.620792 0.000000 # C
87 1 0.000000 3.151400 43.620792 0.000000 # C
88 1 0.000000 1.731400 43.620792 0.000000 # C
89 1 0.000000 0.727308 42.616699 0.000000 # C
90 1 0.000000 0.727308 41.196701 0.000000 # C
91 1 0.000000 1.731400 45.122807 0.000000 # C
92 1 0.000000 3.151400 45.122807 0.000000 # C
93 1 0.000000 4.571400 45.122807 0.000000 # C
94 1 0.000000 5.575491 46.126900 0.000000 # C
95 1 0.000000 5.575491 47.546902 0.000000 # C
96 1 0.000000 4.571400 48.550991 0.000000 # C
97 1 0.000000 3.151400 48.550991 0.000000 # C
98 1 0.000000 1.731400 48.550991 0.000000 # C
99 1 0.000000 0.727308 47.546902 0.000000 # C
100 1 0.000000 0.727308 46.126900 0.000000 # C
101 1 0.000000 1.731400 50.053009 0.000000 # C
102 1 0.000000 3.151400 50.053009 0.000000 # C
103 1 0.000000 4.571400 50.053009 0.000000 # C
104 1 0.000000 5.575491 51.057098 0.000000 # C
105 1 0.000000 5.575491 52.477100 0.000000 # C
106 1 0.000000 4.571400 53.481190 0.000000 # C
107 1 0.000000 3.151400 53.481190 0.000000 # C
108 1 0.000000 1.731400 53.481190 0.000000 # C
109 1 0.000000 0.727308 52.477100 0.000000 # C
110 1 0.000000 0.727308 51.057098 0.000000 # C
111 1 0.000000 1.731400 54.983208 0.000000 # C
112 1 0.000000 3.151400 54.983208 0.000000 # C
113 1 0.000000 4.571400 54.983208 0.000000 # C
114 1 0.000000 5.575491 55.987301 0.000000 # C
115 1 0.000000 5.575491 57.407299 0.000000 # C
116 1 0.000000 4.571400 58.411392 0.000000 # C
117 1 0.000000 3.151400 58.411392 0.000000 # C
118 1 0.000000 1.731400 58.411392 0.000000 # C
119 1 0.000000 0.727308 57.407299 0.000000 # C
120 1 0.000000 0.727308 55.987301 0.000000 # C
121 1 0.000000 1.731400 59.913410 0.000000 # C
122 1 0.000000 3.151400 59.913410 0.000000 # C
123 1 0.000000 4.571400 59.913410 0.000000 # C
124 1 0.000000 5.575491 60.917500 0.000000 # C
125 1 0.000000 5.575491 62.337502 0.000000 # C
126 1 0.000000 4.571400 63.341591 0.000000 # C
127 1 0.000000 3.151400 63.341591 0.000000 # C
128 1 0.000000 1.731400 63.341591 0.000000 # C
129 1 0.000000 0.727308 62.337502 0.000000 # C
130 1 0.000000 0.727308 60.917500 0.000000 # C
131 1 0.000000 1.731400 64.843605 0.000000 # C
132 1 0.000000 3.151400 64.843605 0.000000 # C
133 1 0.000000 4.571400 64.843605 0.000000 # C
134 1 0.000000 5.575491 65.847702 0.000000 # C
135 1 0.000000 5.575491 67.267700 0.000000 # C
136 1 0.000000 4.571400 68.271790 0.000000 # C
137 1 0.000000 3.151400 68.271790 0.000000 # C
138 1 0.000000 1.731400 68.271790 0.000000 # C
139 1 0.000000 0.727308 67.267700 0.000000 # C
140 1 0.000000 0.727308 65.847702 0.000000 # C
141 1 0.000000 1.731400 69.773811 0.000000 # C
142 1 0.000000 3.151400 69.773811 0.000000 # C
143 1 0.000000 4.571400 69.773811 0.000000 # C
144 1 0.000000 5.575491 70.777901 0.000000 # C
145 1 0.000000 5.575491 72.197899 0.000000 # C
146 1 0.000000 4.571400 73.201988 0.000000 # C
147 1 0.000000 3.151400 73.201988 0.000000 # C
148 1 0.000000 1.731400 73.201988 0.000000 # C
149 1 0.000000 0.727308 72.197899 0.000000 # C
150 1 0.000000 0.727308 70.777901 0.000000 # C
151 1 0.000000 1.731400 74.704010 0.000000 # C
152 1 0.000000 3.151400 74.704010 0.000000 # C
153 1 0.000000 4.571400 74.704010 0.000000 # C
154 1 0.000000 5.575491 75.708099 0.000000 # C
155 1 0.000000 5.575491 77.128098 0.000000 # C
156 1 0.000000 4.571400 78.132195 0.000000 # C
157 1 0.000000 3.151400 78.132195 0.000000 # C
158 1 0.000000 1.731400 78.132195 0.000000 # C
159 1 0.000000 0.727308 77.128098 0.000000 # C
160 1 0.000000 0.727308 75.708099 0.000000 # C
161 1 0.000000 1.731400 79.634209 0.000000 # C
162 1 0.000000 3.151400 79.634209 0.000000 # C
163 1 0.000000 4.571400 79.634209 0.000000 # C
164 1 0.000000 5.575491 80.638298 0.000000 # C
165 1 0.000000 5.575491 82.058296 0.000000 # C
166 1 0.000000 4.571400 83.062393 0.000000 # C
167 1 0.000000 3.151400 83.062393 0.000000 # C
168 1 0.000000 1.731400 83.062393 0.000000 # C
169 1 0.000000 0.727308 82.058296 0.000000 # C
170 1 0.000000 0.727308 80.638298 0.000000 # C
171 1 0.000000 1.731400 84.564407 0.000000 # C
172 1 0.000000 3.151400 84.564407 0.000000 # C
173 1 0.000000 4.571400 84.564407 0.000000 # C
174 1 0.000000 5.575491 85.568497 0.000000 # C
175 1 0.000000 5.575491 86.988503 0.000000 # C
176 1 0.000000 4.571400 87.992592 0.000000 # C
177 1 0.000000 3.151400 87.992592 0.000000 # C
178 1 0.000000 1.731400 87.992592 0.000000 # C
179 1 0.000000 0.727308 86.988503 0.000000 # C
180 1 0.000000 0.727308 85.568497 0.000000 # C
181 1 0.000000 1.731400 89.494606 0.000000 # C
182 1 0.000000 3.151400 89.494606 0.000000 # C
183 1 0.000000 4.571400 89.494606 0.000000 # C
184 1 0.000000 5.575491 90.498703 0.000000 # C
185 1 0.000000 5.575491 91.918701 0.000000 # C
186 1 0.000000 4.571400 92.922791 0.000000 # C
187 1 0.000000 3.151400 92.922791 0.000000 # C
188 1 0.000000 1.731400 92.922791 0.000000 # C
189 1 0.000000 0.727308 91.918701 0.000000 # C
190 1 0.000000 0.727308 90.498703 0.000000 # C
191 1 0.000000 1.731400 94.424805 0.000000 # C
192 1 0.000000 3.151400 94.424805 0.000000 # C
193 1 0.000000 4.571400 94.424805 0.000000 # C
194 1 0.000000 5.575491 95.428902 0.000000 # C
195 1 0.000000 5.575491 96.848900 0.000000 # C
196 1 0.000000 4.571400 97.852989 0.000000 # C
197 1 0.000000 3.151400 97.852989 0.000000 # C
198 1 0.000000 1.731400 97.852989 0.000000 # C
199 1 0.000000 0.727308 96.848900 0.000000 # C
200 1 0.000000 0.727308 95.428902 0.000000 # C
201 1 0.000000 1.731400 99.355011 0.000000 # C
202 1 0.000000 3.151400 99.355011 0.000000 # C
203 1 0.000000 4.571400 99.355011 0.000000 # C
204 1 0.000000 5.575491 100.359100 0.000000 # C
205 1 0.000000 5.575491 101.779099 0.000000 # C
206 1 0.000000 4.571400 102.783188 0.000000 # C
207 1 0.000000 3.151400 102.783188 0.000000 # C
208 1 0.000000 1.731400 102.783188 0.000000 # C
209 1 0.000000 0.727308 101.779099 0.000000 # C
210 1 0.000000 0.727308 100.359100 0.000000 # C
211 1 0.000000 8.034200 0.751008 0.000000 # C
212 1 0.000000 9.454200 0.751008 0.000000 # C
213 1 0.000000 10.874200 0.751008 0.000000 # C
214 1 0.000000 11.878292 1.755100 0.000000 # C
215 1 0.000000 11.878292 3.175100 0.000000 # C
216 1 0.000000 10.874200 4.179192 0.000000 # C
217 1 0.000000 9.454200 4.179192 0.000000 # C
218 1 0.000000 8.034200 4.179192 0.000000 # C
219 1 0.000000 7.030108 3.175100 0.000000 # C
220 1 0.000000 7.030108 1.755100 0.000000 # C
221 1 0.000000 8.034200 5.681208 0.000000 # C
222 1 0.000000 9.454200 5.681208 0.000000 # C
223 1 0.000000 10.874200 5.681208 0.000000 # C
224 1 0.000000 11.878292 6.685300 0.000000 # C
225 1 0.000000 11.878292 8.105300 0.000000 # C
226 1 0.000000 10.874200 9.109391 0.000000 # C
227 1 0.000000 9.454200 9.109391 0.000000 # C
228 1 0.000000 8.034200 9.109391 0.000000 # C
229 1 0.000000 7.030108 8.105300 0.000000 # C
230 1 0.000000 7.030108 6.685300 0.000000 # C
231 1 0.000000 8.034200 10.611408 0.000000 # C
232 1 0.000000 9.454200 10.611408 0.000000 # C
233 1 0.000000 10.874200 10.611408 0.000000 # C
234 1 0.000000 11.878292 11.615500 0.000000 # C
235 1 0.000000 11.878292 13.035500 0.000000 # C
236 1 0.000000 10.874200 14.039592 0.000000 # C
237 1 0.000000 9.454200 14.039592 0.000000 # C
238 1 0.000000 8.034200 14.039592 0.000000 # C
239 1 0.000000 7.030108 13.035500 0.000000 # C
240 1 0.000000 7.030108 11.615500 0.000000 # C
241 1 0.000000 8.034200 15.541609 0.000000 # C
242 1 0.000000 9.454200 15.541609 0.000000 # C
243 1 0.000000 10.874200 15.541609 0.000000 # C
244 1 0.000000 11.878292 16.545700 0.000000 # C
245 1 0.000000 11.878292 17.965700 0.000000 # C
246 1 0.000000 10.874200 18.969791 0.000000 # C
247 1 0.000000 9.454200 18.969791 0.000000 # C
248 1 0.000000 8.034200 18.969791 0.000000 # C
249 1 0.000000 7.030108 17.965700 0.000000 # C
250 1 0.000000 7.030108 16.545700 0.000000 # C
251 1 0.000000 8.034200 20.471807 0.000000 # C
252 1 0.000000 9.454200 20.471807 0.000000 # C
253 1 0.000000 10.874200 20.471807 0.000000 # C
254 1 0.000000 11.878292 21.475901 0.000000 # C
255 1 0.000000 11.878292 22.895901 0.000000 # C
256 1 0.000000 10.874200 23.899992 0.000000 # C
257 1 0.000000 9.454200 23.899992 0.000000 # C
258 1 0.000000 8.034200 23.899992 0.000000 # C
259 1 0.000000 7.030108 22.895901 0.000000 # C
260 1 0.000000 7.030108 21.475901 0.000000 # C
261 1 0.000000 8.034200 25.402008 0.000000 # C
262 1 0.000000 9.454200 25.402008 0.000000 # C
263 1 0.000000 10.874200 25.402008 0.000000 # C
264 1 0.000000 11.878292 26.406099 0.000000 # C
265 1 0.000000 11.878292 27.826099 0.000000 # C
266 1 0.000000 10.874200 28.830193 0.000000 # C
267 1 0.000000 9.454200 28.830193 0.000000 # C
268 1 0.000000 8.034200 28.830193 0.000000 # C
269 1 0.000000 7.030108 27.826099 0.000000 # C
270 1 0.000000 7.030108 26.406099 0.000000 # C
271 1 0.000000 8.034200 30.332209 0.000000 # C
272 1 0.000000 9.454200 30.332209 0.000000 # C
273 1 0.000000 10.874200 30.332209 0.000000 # C
274 1 0.000000 11.878292 31.336300 0.000000 # C
275 1 0.000000 11.878292 32.756302 0.000000 # C
276 1 0.000000 10.874200 33.760391 0.000000 # C
277 1 0.000000 9.454200 33.760391 0.000000 # C
278 1 0.000000 8.034200 33.760391 0.000000 # C
279 1 0.000000 7.030108 32.756302 0.000000 # C
280 1 0.000000 7.030108 31.336300 0.000000 # C
281 1 0.000000 8.034200 35.262409 0.000000 # C
282 1 0.000000 9.454200 35.262409 0.000000 # C
283 1 0.000000 10.874200 35.262409 0.000000 # C
284 1 0.000000 11.878292 36.266499 0.000000 # C
285 1 0.000000 11.878292 37.686501 0.000000 # C
286 1 0.000000 10.874200 38.690590 0.000000 # C
287 1 0.000000 9.454200 38.690590 0.000000 # C
288 1 0.000000 8.034200 38.690590 0.000000 # C
289 1 0.000000 7.030108 37.686501 0.000000 # C
290 1 0.000000 7.030108 36.266499 0.000000 # C
291 1 0.000000 8.034200 40.192608 0.000000 # C
292 1 0.000000 9.454200 40.192608 0.000000 # C
293 1 0.000000 10.874200 40.192608 0.000000 # C
294 1 0.000000 11.878292 41.196701 0.000000 # C
295 1 0.000000 11.878292 42.616699 0.000000 # C
296 1 0.000000 10.874200 43.620792 0.000000 # C
297 1 0.000000 9.454200 43.620792 0.000000 # C
298 1 0.000000 8.034200 43.620792 0.000000 # C
299 1 0.000000 7.030108 42.616699 0.000000 # C
300 1 0.000000 7.030108 41.196701 0.000000 # C
301 1 0.000000 8.034200 45.122807 0.000000 # C
302 1 0.000000 9.454200 45.122807 0.000000 # C
303 1 0.000000 10.874200 45.122807 0.000000 # C
304 1 0.000000 11.878292 46.126900 0.000000 # C
305 1 0.000000 11.878292 47.546902 0.000000 # C
306 1 0.000000 10.874200 48.550991 0.000000 # C
307 1 0.000000 9.454200 48.550991 0.000000 # C
308 1 0.000000 8.034200 48.550991 0.000000 # C
309 1 0.000000 7.030108 47.546902 0.000000 # C
310 1 0.000000 7.030108 46.126900 0.000000 # C
311 1 0.000000 8.034200 50.053009 0.000000 # C
312 1 0.000000 9.454200 50.053009 0.000000 # C
313 1 0.000000 10.874200 50.053009 0.000000 # C
314 1 0.000000 11.878292 51.057098 0.000000 # C
315 1 0.000000 11.878292 52.477100 0.000000 # C
316 1 0.000000 10.874200 53.481190 0.000000 # C
317 1 0.000000 9.454200 53.481190 0.000000 # C
318 1 0.000000 8.034200 53.481190 0.000000 # C
319 1 0.000000 7.030108 52.477100 0.000000 # C
320 1 0.000000 7.030108 51.057098 0.000000 # C
321 1 0.000000 8.034200 54.983208 0.000000 # C
322 1 0.000000 9.454200 54.983208 0.000000 # C
323 1 0.000000 10.874200 54.983208 0.000000 # C
324 1 0.000000 11.878292 55.987301 0.000000 # C
325 1 0.000000 11.878292 57.407299 0.000000 # C
326 1 0.000000 10.874200 58.411392 0.000000 # C
327 1 0.000000 9.454200 58.411392 0.000000 # C
328 1 0.000000 8.034200 58.411392 0.000000 # C
329 1 0.000000 7.030108 57.407299 0.000000 # C
330 1 0.000000 7.030108 55.987301 0.000000 # C
331 1 0.000000 8.034200 59.913410 0.000000 # C
332 1 0.000000 9.454200 59.913410 0.000000 # C
333 1 0.000000 10.874200 59.913410 0.000000 # C
334 1 0.000000 11.878292 60.917500 0.000000 # C
335 1 0.000000 11.878292 62.337502 0.000000 # C
336 1 0.000000 10.874200 63.341591 0.000000 # C
337 1 0.000000 9.454200 63.341591 0.000000 # C
338 1 0.000000 8.034200 63.341591 0.000000 # C
339 1 0.000000 7.030108 62.337502 0.000000 # C
340 1 0.000000 7.030108 60.917500 0.000000 # C
341 1 0.000000 8.034200 64.843605 0.000000 # C
342 1 0.000000 9.454200 64.843605 0.000000 # C
343 1 0.000000 10.874200 64.843605 0.000000 # C
344 1 0.000000 11.878292 65.847702 0.000000 # C
345 1 0.000000 11.878292 67.267700 0.000000 # C
346 1 0.000000 10.874200 68.271790 0.000000 # C
347 1 0.000000 9.454200 68.271790 0.000000 # C
348 1 0.000000 8.034200 68.271790 0.000000 # C
349 1 0.000000 7.030108 67.267700 0.000000 # C
350 1 0.000000 7.030108 65.847702 0.000000 # C
351 1 0.000000 8.034200 69.773811 0.000000 # C
352 1 0.000000 9.454200 69.773811 0.000000 # C
353 1 0.000000 10.874200 69.773811 0.000000 # C
354 1 0.000000 11.878292 70.777901 0.000000 # C
355 1 0.000000 11.878292 72.197899 0.000000 # C
356 1 0.000000 10.874200 73.201988 0.000000 # C
357 1 0.000000 9.454200 73.201988 0.000000 # C
358 1 0.000000 8.034200 73.201988 0.000000 # C
359 1 0.000000 7.030108 72.197899 0.000000 # C
360 1 0.000000 7.030108 70.777901 0.000000 # C
361 1 0.000000 8.034200 74.704010 0.000000 # C
362 1 0.000000 9.454200 74.704010 0.000000 # C
363 1 0.000000 10.874200 74.704010 0.000000 # C
364 1 0.000000 11.878292 75.708099 0.000000 # C
365 1 0.000000 11.878292 77.128098 0.000000 # C
366 1 0.000000 10.874200 78.132195 0.000000 # C
367 1 0.000000 9.454200 78.132195 0.000000 # C
368 1 0.000000 8.034200 78.132195 0.000000 # C
369 1 0.000000 7.030108 77.128098 0.000000 # C
370 1 0.000000 7.030108 75.708099 0.000000 # C
371 1 0.000000 8.034200 79.634209 0.000000 # C
372 1 0.000000 9.454200 79.634209 0.000000 # C
373 1 0.000000 10.874200 79.634209 0.000000 # C
374 1 0.000000 11.878292 80.638298 0.000000 # C
375 1 0.000000 11.878292 82.058296 0.000000 # C
376 1 0.000000 10.874200 83.062393 0.000000 # C
377 1 0.000000 9.454200 83.062393 0.000000 # C
378 1 0.000000 8.034200 83.062393 0.000000 # C
379 1 0.000000 7.030108 82.058296 0.000000 # C
380 1 0.000000 7.030108 80.638298 0.000000 # C
381 1 0.000000 8.034200 84.564407 0.000000 # C
382 1 0.000000 9.454200 84.564407 0.000000 # C
383 1 0.000000 10.874200 84.564407 0.000000 # C
384 1 0.000000 11.878292 85.568497 0.000000 # C
385 1 0.000000 11.878292 86.988503 0.000000 # C
386 1 0.000000 10.874200 87.992592 0.000000 # C
387 1 0.000000 9.454200 87.992592 0.000000 # C
388 1 0.000000 8.034200 87.992592 0.000000 # C
389 1 0.000000 7.030108 86.988503 0.000000 # C
390 1 0.000000 7.030108 85.568497 0.000000 # C
391 1 0.000000 8.034200 89.494606 0.000000 # C
392 1 0.000000 9.454200 89.494606 0.000000 # C
393 1 0.000000 10.874200 89.494606 0.000000 # C
394 1 0.000000 11.878292 90.498703 0.000000 # C
395 1 0.000000 11.878292 91.918701 0.000000 # C
396 1 0.000000 10.874200 92.922791 0.000000 # C
397 1 0.000000 9.454200 92.922791 0.000000 # C
398 1 0.000000 8.034200 92.922791 0.000000 # C
399 1 0.000000 7.030108 91.918701 0.000000 # C
400 1 0.000000 7.030108 90.498703 0.000000 # C
401 1 0.000000 8.034200 94.424805 0.000000 # C
402 1 0.000000 9.454200 94.424805 0.000000 # C
403 1 0.000000 10.874200 94.424805 0.000000 # C
404 1 0.000000 11.878292 95.428902 0.000000 # C
405 1 0.000000 11.878292 96.848900 0.000000 # C
406 1 0.000000 10.874200 97.852989 0.000000 # C
407 1 0.000000 9.454200 97.852989 0.000000 # C
408 1 0.000000 8.034200 97.852989 0.000000 # C
409 1 0.000000 7.030108 96.848900 0.000000 # C
410 1 0.000000 7.030108 95.428902 0.000000 # C
411 1 0.000000 8.034200 99.355011 0.000000 # C
412 1 0.000000 9.454200 99.355011 0.000000 # C
413 1 0.000000 10.874200 99.355011 0.000000 # C
414 1 0.000000 11.878292 100.359100 0.000000 # C
415 1 0.000000 11.878292 101.779099 0.000000 # C
416 1 0.000000 10.874200 102.783188 0.000000 # C
417 1 0.000000 9.454200 102.783188 0.000000 # C
418 1 0.000000 8.034200 102.783188 0.000000 # C
419 1 0.000000 7.030108 101.779099 0.000000 # C
420 1 0.000000 7.030108 100.359100 0.000000 # C
421 1 0.000000 14.337000 0.751008 0.000000 # C
422 1 0.000000 15.757000 0.751008 0.000000 # C
423 1 0.000000 17.177000 0.751008 0.000000 # C
424 1 0.000000 18.181091 1.755100 0.000000 # C
425 1 0.000000 18.181091 3.175100 0.000000 # C
426 1 0.000000 17.177000 4.179192 0.000000 # C
427 1 0.000000 15.757000 4.179192 0.000000 # C
428 1 0.000000 14.337000 4.179192 0.000000 # C
429 1 0.000000 13.332909 3.175100 0.000000 # C
430 1 0.000000 13.332909 1.755100 0.000000 # C
431 1 0.000000 14.337000 5.681208 0.000000 # C
432 1 0.000000 15.757000 5.681208 0.000000 # C
433 1 0.000000 17.177000 5.681208 0.000000 # C
434 1 0.000000 18.181091 6.685300 0.000000 # C
435 1 0.000000 18.181091 8.105300 0.000000 # C
436 1 0.000000 17.177000 9.109391 0.000000 # C
437 1 0.000000 15.757000 9.109391 0.000000 # C
438 1 0.000000 14.337000 9.109391 0.000000 # C
439 1 0.000000 13.332909 8.105300 0.000000 # C
440 1 0.000000 13.332909 6.685300 0.000000 # C
441 1 0.000000 14.337000 10.611408 0.000000 # C
442 1 0.000000 15.757000 10.611408 0.000000 # C
443 1 0.000000 17.177000 10.611408 0.000000 # C
444 1 0.000000 18.181091 11.615500 0.000000 # C
445 1 0.000000 18.181091 13.035500 0.000000 # C
446 1 0.000000 17.177000 14.039592 0.000000 # C
447 1 0.000000 15.757000 14.039592 0.000000 # C
448 1 0.000000 14.337000 14.039592 0.000000 # C
449 1 0.000000 13.332909 13.035500 0.000000 # C
450 1 0.000000 13.332909 11.615500 0.000000 # C
451 1 0.000000 14.337000 15.541609 0.000000 # C
452 1 0.000000 15.757000 15.541609 0.000000 # C
453 1 0.000000 17.177000 15.541609 0.000000 # C
454 1 0.000000 18.181091 16.545700 0.000000 # C
455 1 0.000000 18.181091 17.965700 0.000000 # C
456 1 0.000000 17.177000 18.969791 0.000000 # C
457 1 0.000000 15.757000 18.969791 0.000000 # C
458 1 0.000000 14.337000 18.969791 0.000000 # C
459 1 0.000000 13.332909 17.965700 0.000000 # C
460 1 0.000000 13.332909 16.545700 0.000000 # C
461 1 0.000000 14.337000 20.471807 0.000000 # C
462 1 0.000000 15.757000 20.471807 0.000000 # C
463 1 0.000000 17.177000 20.471807 0.000000 # C
464 1 0.000000 18.181091 21.475901 0.000000 # C
465 1 0.000000 18.181091 22.895901 0.000000 # C
466 1 0.000000 17.177000 23.899992 0.000000 # C
467 1 0.000000 15.757000 23.899992 0.000000 # C
468 1 0.000000 14.337000 23.899992 0.000000 # C
469 1 0.000000 13.332909 22.895901 0.000000 # C
470 1 0.000000 13.332909 21.475901 0.000000 # C
471 1 0.000000 14.337000 25.402008 0.000000 # C
472 1 0.000000 15.757000 25.402008 0.000000 # C
473 1 0.000000 17.177000 25.402008 0.000000 # C
474 1 0.000000 18.181091 26.406099 0.000000 # C
475 1 0.000000 18.181091 27.826099 0.000000 # C
476 1 0.000000 17.177000 28.830193 0.000000 # C
477 1 0.000000 15.757000 28.830193 0.000000 # C
478 1 0.000000 14.337000 28.830193 0.000000 # C
479 1 0.000000 13.332909 27.826099 0.000000 # C
480 1 0.000000 13.332909 26.406099 0.000000 # C
481 1 0.000000 14.337000 30.332209 0.000000 # C
482 1 0.000000 15.757000 30.332209 0.000000 # C
483 1 0.000000 17.177000 30.332209 0.000000 # C
484 1 0.000000 18.181091 31.336300 0.000000 # C
485 1 0.000000 18.181091 32.756302 0.000000 # C
486 1 0.000000 17.177000 33.760391 0.000000 # C
487 1 0.000000 15.757000 33.760391 0.000000 # C
488 1 0.000000 14.337000 33.760391 0.000000 # C
489 1 0.000000 13.332909 32.756302 0.000000 # C
490 1 0.000000 13.332909 31.336300 0.000000 # C
491 1 0.000000 14.337000 35.262409 0.000000 # C
492 1 0.000000 15.757000 35.262409 0.000000 # C
493 1 0.000000 17.177000 35.262409 0.000000 # C
494 1 0.000000 18.181091 36.266499 0.000000 # C
495 1 0.000000 18.181091 37.686501 0.000000 # C
496 1 0.000000 17.177000 38.690590 0.000000 # C
497 1 0.000000 15.757000 38.690590 0.000000 # C
498 1 0.000000 14.337000 38.690590 0.000000 # C
499 1 0.000000 13.332909 37.686501 0.000000 # C
500 1 0.000000 13.332909 36.266499 0.000000 # C
501 1 0.000000 14.337000 40.192608 0.000000 # C
502 1 0.000000 15.757000 40.192608 0.000000 # C
503 1 0.000000 17.177000 40.192608 0.000000 # C
504 1 0.000000 18.181091 41.196701 0.000000 # C
505 1 0.000000 18.181091 42.616699 0.000000 # C
506 1 0.000000 17.177000 43.620792 0.000000 # C
507 1 0.000000 15.757000 43.620792 0.000000 # C
508 1 0.000000 14.337000 43.620792 0.000000 # C
509 1 0.000000 13.332909 42.616699 0.000000 # C
510 1 0.000000 13.332909 41.196701 0.000000 # C
511 1 0.000000 14.337000 45.122807 0.000000 # C
512 1 0.000000 15.757000 45.122807 0.000000 # C
513 1 0.000000 17.177000 45.122807 0.000000 # C
514 1 0.000000 18.181091 46.126900 0.000000 # C
515 1 0.000000 18.181091 47.546902 0.000000 # C
516 1 0.000000 17.177000 48.550991 0.000000 # C
517 1 0.000000 15.757000 48.550991 0.000000 # C
518 1 0.000000 14.337000 48.550991 0.000000 # C
519 1 0.000000 13.332909 47.546902 0.000000 # C
520 1 0.000000 13.332909 46.126900 0.000000 # C
521 1 0.000000 14.337000 50.053009 0.000000 # C
522 1 0.000000 15.757000 50.053009 0.000000 # C
523 1 0.000000 17.177000 50.053009 0.000000 # C
524 1 0.000000 18.181091 51.057098 0.000000 # C
525 1 0.000000 18.181091 52.477100 0.000000 # C
526 1 0.000000 17.177000 53.481190 0.000000 # C
527 1 0.000000 15.757000 53.481190 0.000000 # C
528 1 0.000000 14.337000 53.481190 0.000000 # C
529 1 0.000000 13.332909 52.477100 0.000000 # C
530 1 0.000000 13.332909 51.057098 0.000000 # C
531 1 0.000000 14.337000 54.983208 0.000000 # C
532 1 0.000000 15.757000 54.983208 0.000000 # C
533 1 0.000000 17.177000 54.983208 0.000000 # C
534 1 0.000000 18.181091 55.987301 0.000000 # C
535 1 0.000000 18.181091 57.407299 0.000000 # C
536 1 0.000000 17.177000 58.411392 0.000000 # C
537 1 0.000000 15.757000 58.411392 0.000000 # C
538 1 0.000000 14.337000 58.411392 0.000000 # C
539 1 0.000000 13.332909 57.407299 0.000000 # C
540 1 0.000000 13.332909 55.987301 0.000000 # C
541 1 0.000000 14.337000 59.913410 0.000000 # C
542 1 0.000000 15.757000 59.913410 0.000000 # C
543 1 0.000000 17.177000 59.913410 0.000000 # C
544 1 0.000000 18.181091 60.917500 0.000000 # C
545 1 0.000000 18.181091 62.337502 0.000000 # C
546 1 0.000000 17.177000 63.341591 0.000000 # C
547 1 0.000000 15.757000 63.341591 0.000000 # C
548 1 0.000000 14.337000 63.341591 0.000000 # C
549 1 0.000000 13.332909 62.337502 0.000000 # C
550 1 0.000000 13.332909 60.917500 0.000000 # C
551 1 0.000000 14.337000 64.843605 0.000000 # C
552 1 0.000000 15.757000 64.843605 0.000000 # C
553 1 0.000000 17.177000 64.843605 0.000000 # C
554 1 0.000000 18.181091 65.847702 0.000000 # C
555 1 0.000000 18.181091 67.267700 0.000000 # C
556 1 0.000000 17.177000 68.271790 0.000000 # C
557 1 0.000000 15.757000 68.271790 0.000000 # C
558 1 0.000000 14.337000 68.271790 0.000000 # C
559 1 0.000000 13.332909 67.267700 0.000000 # C
560 1 0.000000 13.332909 65.847702 0.000000 # C
561 1 0.000000 14.337000 69.773811 0.000000 # C
562 1 0.000000 15.757000 69.773811 0.000000 # C
563 1 0.000000 17.177000 69.773811 0.000000 # C
564 1 0.000000 18.181091 70.777901 0.000000 # C
565 1 0.000000 18.181091 72.197899 0.000000 # C
566 1 0.000000 17.177000 73.201988 0.000000 # C
567 1 0.000000 15.757000 73.201988 0.000000 # C
568 1 0.000000 14.337000 73.201988 0.000000 # C
569 1 0.000000 13.332909 72.197899 0.000000 # C
570 1 0.000000 13.332909 70.777901 0.000000 # C
571 1 0.000000 14.337000 74.704010 0.000000 # C
572 1 0.000000 15.757000 74.704010 0.000000 # C
573 1 0.000000 17.177000 74.704010 0.000000 # C
574 1 0.000000 18.181091 75.708099 0.000000 # C
575 1 0.000000 18.181091 77.128098 0.000000 # C
576 1 0.000000 17.177000 78.132195 0.000000 # C
577 1 0.000000 15.757000 78.132195 0.000000 # C
578 1 0.000000 14.337000 78.132195 0.000000 # C
579 1 0.000000 13.332909 77.128098 0.000000 # C
580 1 0.000000 13.332909 75.708099 0.000000 # C
581 1 0.000000 14.337000 79.634209 0.000000 # C
582 1 0.000000 15.757000 79.634209 0.000000 # C
583 1 0.000000 17.177000 79.634209 0.000000 # C
584 1 0.000000 18.181091 80.638298 0.000000 # C
585 1 0.000000 18.181091 82.058296 0.000000 # C
586 1 0.000000 17.177000 83.062393 0.000000 # C
587 1 0.000000 15.757000 83.062393 0.000000 # C
588 1 0.000000 14.337000 83.062393 0.000000 # C
589 1 0.000000 13.332909 82.058296 0.000000 # C
590 1 0.000000 13.332909 80.638298 0.000000 # C
591 1 0.000000 14.337000 84.564407 0.000000 # C
592 1 0.000000 15.757000 84.564407 0.000000 # C
593 1 0.000000 17.177000 84.564407 0.000000 # C
594 1 0.000000 18.181091 85.568497 0.000000 # C
595 1 0.000000 18.181091 86.988503 0.000000 # C
596 1 0.000000 17.177000 87.992592 0.000000 # C
597 1 0.000000 15.757000 87.992592 0.000000 # C
598 1 0.000000 14.337000 87.992592 0.000000 # C
599 1 0.000000 13.332909 86.988503 0.000000 # C
600 1 0.000000 13.332909 85.568497 0.000000 # C
601 1 0.000000 14.337000 89.494606 0.000000 # C
602 1 0.000000 15.757000 89.494606 0.000000 # C
603 1 0.000000 17.177000 89.494606 0.000000 # C
604 1 0.000000 18.181091 90.498703 0.000000 # C
605 1 0.000000 18.181091 91.918701 0.000000 # C
606 1 0.000000 17.177000 92.922791 0.000000 # C
607 1 0.000000 15.757000 92.922791 0.000000 # C
608 1 0.000000 14.337000 92.922791 0.000000 # C
609 1 0.000000 13.332909 91.918701 0.000000 # C
610 1 0.000000 13.332909 90.498703 0.000000 # C
611 1 0.000000 14.337000 94.424805 0.000000 # C
612 1 0.000000 15.757000 94.424805 0.000000 # C
613 1 0.000000 17.177000 94.424805 0.000000 # C
614 1 0.000000 18.181091 95.428902 0.000000 # C
615 1 0.000000 18.181091 96.848900 0.000000 # C
616 1 0.000000 17.177000 97.852989 0.000000 # C
617 1 0.000000 15.757000 97.852989 0.000000 # C
618 1 0.000000 14.337000 97.852989 0.000000 # C
619 1 0.000000 13.332909 96.848900 0.000000 # C
620 1 0.000000 13.332909 95.428902 0.000000 # C
621 1 0.000000 14.337000 99.355011 0.000000 # C
622 1 0.000000 15.757000 99.355011 0.000000 # C
623 1 0.000000 17.177000 99.355011 0.000000 # C
624 1 0.000000 18.181091 100.359100 0.000000 # C
625 1 0.000000 18.181091 101.779099 0.000000 # C
626 1 0.000000 17.177000 102.783188 0.000000 # C